TITLE = "FUNC"
VARIABLES = "X", "F"
ZONE I=32, F=POINT
 0.0000000000000e+00 -7.7121958313900e-13
 1.0000000000000e-03 -2.3199210720906e-04
 2.0000000000000e-03 -4.6398443822369e-04
 3.0000000000000e-03 -6.9597722031283e-04
 4.0000000000000e-03 -9.2797068386245e-04
 5.0000000000000e-03 -1.1599650651516e-03
 6.0000000000000e-03 -1.3919606084084e-03
 7.0000000000000e-03 -1.6239575679343e-03
 8.0000000000000e-03 -1.8559562103150e-03
 9.0000000000000e-03 -2.0879568167363e-03
 1.0000000000000e-02 -2.3199596854253e-03
 1.1000000000000e-02 -2.5519651342348e-03
 1.2000000000000e-02 -2.7839735033952e-03
 1.3000000000000e-02 -3.0159851584535e-03
 1.4000000000000e-02 -3.2480004934239e-03
 1.5000000000000e-02 -3.4800199341756e-03
 1.6000000000000e-02 -3.7120439420831e-03
 1.7000000000000e-02 -3.9440730179680e-03
 1.8000000000000e-02 -4.1761077063622e-03
 1.9000000000000e-02 -4.4081486001248e-03
 2.0000000000000e-02 -4.6401963454478e-03
 2.1000000000000e-02 -4.8722516472866e-03
 2.2000000000000e-02 -5.1043152752572e-03
 2.3000000000000e-02 -5.3363880700408e-03
 2.4000000000000e-02 -5.5684709503439e-03
 2.5000000000000e-02 -5.8005649204637e-03
 2.6000000000000e-02 -6.0326710785119e-03
 2.7000000000000e-02 -6.2647906253552e-03
 2.8000000000000e-02 -6.4969248743365e-03
 2.9000000000000e-02 -6.7290752618435e-03
 3.0000000000000e-02 -6.9612433587982e-03
 3.1000000000000e-02 -7.1934308831474e-03
ZONE I=32, F=POINT
 3.2000000000000e-02 -7.4256217215061e-03
 3.3000000000000e-02 -7.6578159806396e-03
 3.4000000000000e-02 -7.8900188552936e-03
 3.5000000000000e-02 -8.1222312433801e-03
 3.6000000000000e-02 -8.3544540961725e-03
 3.7000000000000e-02 -8.5866884235619e-03
 3.8000000000000e-02 -8.8189352998648e-03
 3.9000000000000e-02 -9.0511958702077e-03
 4.0000000000000e-02 -9.2834713575227e-03
 4.1000000000000e-02 -9.5157630701890e-03
 4.2000000000000e-02 -9.7480724103626e-03
 4.3000000000000e-02 -9.9804008830386e-03
 4.4000000000000e-02 -1.0212750105898e-02
 4.5000000000000e-02 -1.0445121819995e-02
 4.6000000000000e-02 -1.0677517901345e-02
 4.7000000000000e-02 -1.0909940373481e-02
 4.8000000000000e-02 -1.1142391421060e-02
 4.9000000000000e-02 -1.1374873404580e-02
 5.0000000000000e-02 -1.1607388876320e-02
 5.1000000000000e-02 -1.1839940597585e-02
 5.2000000000000e-02 -1.2072531557356e-02
 5.3000000000000e-02 -1.2305164992467e-02
 5.4000000000000e-02 -1.2537844409431e-02
 5.5000000000000e-02 -1.2770573608039e-02
 5.6000000000000e-02 -1.3003356706884e-02
 5.7000000000000e-02 -1.3236198170961e-02
 5.8000000000000e-02 -1.3469102841519e-02
 5.9000000000000e-02 -1.3702075968335e-02
 6.0000000000000e-02 -1.3935123244623e-02
 6.1000000000000e-02 -1.4168250844787e-02
 6.2000000000000e-02 -1.4401465465244e-02
 6.3000000000000e-02 -1.4634774368584e-02
ZONE I=32, F=POINT
 6.4000000000000e-02 -1.4868089928561e-02
 6.5000000000000e-02 -1.5101412250386e-02
 6.6000000000000e-02 -1.5334782564298e-02
 6.7000000000000e-02 -1.5568202930319e-02
 6.8000000000000e-02 -1.5801675557882e-02
 6.9000000000000e-02 -1.6035202822772e-02
 7.0000000000000e-02 -1.6268787285108e-02
 7.1000000000000e-02 -1.6502431708431e-02
 7.2000000000000e-02 -1.6736139080031e-02
 7.3000000000000e-02 -1.6969912632593e-02
 7.4000000000000e-02 -1.7203755867299e-02
 7.5000000000000e-02 -1.7437672578511e-02
 7.6000000000000e-02 -1.7671666880168e-02
 7.7000000000000e-02 -1.7905743234045e-02
 7.8000000000000e-02 -1.8139906480042e-02
 7.9000000000000e-02 -1.8374161868666e-02
 8.0000000000000e-02 -1.8608515095899e-02
 8.1000000000000e-02 -1.8842972340647e-02
 8.2000000000000e-02 -1.9077540304994e-02
 8.3000000000000e-02 -1.9312226257491e-02
 8.4000000000000e-02 -1.9547038079724e-02
 8.5000000000000e-02 -1.9781984316455e-02
 8.6000000000000e-02 -2.0017074229612e-02
 8.7000000000000e-02 -2.0252317856453e-02
 8.8000000000000e-02 -2.0487726072257e-02
 8.9000000000000e-02 -2.0723310657903e-02
 9.0000000000000e-02 -2.0959084372761e-02
 9.1000000000000e-02 -2.1195061033312e-02
 9.2000000000000e-02 -2.1431255597998e-02
 9.3000000000000e-02 -2.1667684258804e-02
 9.4000000000000e-02 -2.1904364540142e-02
 9.5000000000000e-02 -2.2141315405653e-02
ZONE I=32, F=POINT
 9.6000000000000e-02 -2.2378275923949e-02
 9.7000000000000e-02 -2.2615246194938e-02
 9.8000000000000e-02 -2.2852379284165e-02
 9.9000000000000e-02 -2.3089677195071e-02
 1.0000000000000e-01 -2.3327142387304e-02
 1.0100000000000e-01 -2.3564777808297e-02
 1.0200000000000e-01 -2.3802586926971e-02
 1.0300000000000e-01 -2.4040573769785e-02
 1.0400000000000e-01 -2.4278742959339e-02
 1.0500000000000e-01 -2.4517099755747e-02
 1.0600000000000e-01 -2.4755650101060e-02
 1.0700000000000e-01 -2.4994400666956e-02
 1.0800000000000e-01 -2.5233358906026e-02
 1.0900000000000e-01 -2.5472533106920e-02
 1.1000000000000e-01 -2.5711932453715e-02
 1.1100000000000e-01 -2.5951567089826e-02
 1.1200000000000e-01 -2.6191448186862e-02
 1.1300000000000e-01 -2.6431588018827e-02
 1.1400000000000e-01 -2.6672000042104e-02
 1.1500000000000e-01 -2.6912698981716e-02
 1.1600000000000e-01 -2.7153700924367e-02
 1.1700000000000e-01 -2.7395023418825e-02
 1.1800000000000e-01 -2.7636685584271e-02
 1.1900000000000e-01 -2.7878708227251e-02
 1.2000000000000e-01 -2.8121113967977e-02
 1.2100000000000e-01 -2.8363927376727e-02
 1.2200000000000e-01 -2.8607175121223e-02
 1.2300000000000e-01 -2.8850886125899e-02
 1.2400000000000e-01 -2.9095091744074e-02
 1.2500000000000e-01 -2.9339825944137e-02
 1.2600000000000e-01 -2.9585125510952e-02
 1.2700000000000e-01 -2.9831030263816e-02
ZONE I=32, F=POINT
 1.2800000000000e-01 -3.0076946464251e-02
 1.2900000000000e-01 -3.0322874185309e-02
 1.3000000000000e-01 -3.0569204409224e-02
 1.3100000000000e-01 -3.0815936278517e-02
 1.3200000000000e-01 -3.1063070098496e-02
 1.3300000000000e-01 -3.1310607381651e-02
 1.3400000000000e-01 -3.1558550896839e-02
 1.3500000000000e-01 -3.1806904723593e-02
 1.3600000000000e-01 -3.2055674311916e-02
 1.3700000000000e-01 -3.2304866547952e-02
 1.3800000000000e-01 -3.2554489825955e-02
 1.3900000000000e-01 -3.2804554127028e-02
 1.4000000000000e-01 -3.3055071105115e-02
 1.4100000000000e-01 -3.3306054180815e-02
 1.4200000000000e-01 -3.3557518643579e-02
 1.4300000000000e-01 -3.3809481762965e-02
 1.4400000000000e-01 -3.4061962909626e-02
 1.4500000000000e-01 -3.4314983686803e-02
 1.4600000000000e-01 -3.4568568073152e-02
 1.4700000000000e-01 -3.4822742577809e-02
 1.4800000000000e-01 -3.5077536408674e-02
 1.4900000000000e-01 -3.5332981655003e-02
 1.5000000000000e-01 -3.5589113485471e-02
 1.5100000000000e-01 -3.5845970363009e-02
 1.5200000000000e-01 -3.6103594277811e-02
 1.5300000000000e-01 -3.6362031000075e-02
 1.5400000000000e-01 -3.6621330354158e-02
 1.5500000000000e-01 -3.6881546516037e-02
 1.5600000000000e-01 -3.7142738336099e-02
 1.5700000000000e-01 -3.7404969689561e-02
 1.5800000000000e-01 -3.7668309856991e-02
 1.5900000000000e-01 -3.7932833937706e-02
ZONE I=32, F=POINT
 1.6000000000000e-01 -3.8197366672057e-02
 1.6100000000000e-01 -3.8461907951948e-02
 1.6200000000000e-01 -3.8727281234285e-02
 1.6300000000000e-01 -3.8993478436173e-02
 1.6400000000000e-01 -3.9260493997006e-02
 1.6500000000000e-01 -3.9528324930600e-02
 1.6600000000000e-01 -3.9796970887803e-02
 1.6700000000000e-01 -4.0066434230055e-02
 1.6800000000000e-01 -4.0336720114438e-02
 1.6900000000000e-01 -4.0607836590806e-02
 1.7000000000000e-01 -4.0879794711685e-02
 1.7100000000000e-01 -4.1152608655697e-02
 1.7200000000000e-01 -4.1426295865351e-02
 1.7300000000000e-01 -4.1700877200127e-02
 1.7400000000000e-01 -4.1976377105908e-02
 1.7500000000000e-01 -4.2252823801884e-02
 1.7600000000000e-01 -4.2530249486205e-02
 1.7700000000000e-01 -4.2808690561762e-02
 1.7800000000000e-01 -4.3088187883659e-02
 1.7900000000000e-01 -4.3368787030034e-02
 1.8000000000000e-01 -4.3650538598139e-02
 1.8100000000000e-01 -4.3933498527718e-02
 1.8200000000000e-01 -4.4217728453965e-02
 1.8300000000000e-01 -4.4503296092597e-02
 1.8400000000000e-01 -4.4790275659808e-02
 1.8500000000000e-01 -4.5078748330214e-02
 1.8600000000000e-01 -4.5368802736186e-02
 1.8700000000000e-01 -4.5660535512393e-02
 1.8800000000000e-01 -4.5954051889766e-02
 1.8900000000000e-01 -4.6249466343579e-02
 1.9000000000000e-01 -4.6546903300915e-02
 1.9100000000000e-01 -4.6846497913338e-02
ZONE I=32, F=POINT
 1.9200000000000e-01 -4.7146076438394e-02
 1.9300000000000e-01 -4.7445637591979e-02
 1.9400000000000e-01 -4.7746747974417e-02
 1.9500000000000e-01 -4.8049385657143e-02
 1.9600000000000e-01 -4.8353533643449e-02
 1.9700000000000e-01 -4.8659179921951e-02
 1.9800000000000e-01 -4.8966317542080e-02
 1.9900000000000e-01 -4.9274944712204e-02
 2.0000000000000e-01 -4.9585064921124e-02
 2.0100000000000e-01 -4.9896687083855e-02
 2.0200000000000e-01 -5.0209825712778e-02
 2.0300000000000e-01 -5.0524501115420e-02
 2.0400000000000e-01 -5.0840739620313e-02
 2.0500000000000e-01 -5.1158573832595e-02
 2.0600000000000e-01 -5.1478042921217e-02
 2.0700000000000e-01 -5.1799192939880e-02
 2.0800000000000e-01 -5.2122077184072e-02
 2.0900000000000e-01 -5.2446756586868e-02
 2.1000000000000e-01 -5.2773300156471e-02
 2.1100000000000e-01 -5.3101785458815e-02
 2.1200000000000e-01 -5.3432299148952e-02
 2.1300000000000e-01 -5.3764937555362e-02
 2.1400000000000e-01 -5.4099807321830e-02
 2.1500000000000e-01 -5.4437026112047e-02
 2.1600000000000e-01 -5.4776723382744e-02
 2.1700000000000e-01 -5.5119041231823e-02
 2.1800000000000e-01 -5.5464135328756e-02
 2.1900000000000e-01 -5.5812175935397e-02
 2.2000000000000e-01 -5.6163349026369e-02
 2.2100000000000e-01 -5.6517857519344e-02
 2.2200000000000e-01 -5.6875922626836e-02
 2.2300000000000e-01 -5.7237785342673e-02
ZONE I=32, F=POINT
 2.2400000000000e-01 -5.7599495965751e-02
 2.2500000000000e-01 -5.7961046831109e-02
 2.2600000000000e-01 -5.8325288351027e-02
 2.2700000000000e-01 -5.8692172236117e-02
 2.2800000000000e-01 -5.9061659281234e-02
 2.2900000000000e-01 -5.9433719414503e-02
 2.3000000000000e-01 -5.9808331792000e-02
 2.3100000000000e-01 -6.0185484938756e-02
 2.3200000000000e-01 -6.0565176937152e-02
 2.3300000000000e-01 -6.0947415664180e-02
 2.3400000000000e-01 -6.1332219079395e-02
 2.3500000000000e-01 -6.1719615565864e-02
 2.3600000000000e-01 -6.2109644326795e-02
 2.3700000000000e-01 -6.2502355841068e-02
 2.3800000000000e-01 -6.2897812381321e-02
 2.3900000000000e-01 -6.3296088598871e-02
 2.4000000000000e-01 -6.3697272180280e-02
 2.4100000000000e-01 -6.4101464581114e-02
 2.4200000000000e-01 -6.4508781843101e-02
 2.4300000000000e-01 -6.4919355501798e-02
 2.4400000000000e-01 -6.5333333592719e-02
 2.4500000000000e-01 -6.5750881764979e-02
 2.4600000000000e-01 -6.6172184512641e-02
 2.4700000000000e-01 -6.6597446535293e-02
 2.4800000000000e-01 -6.7026894240900e-02
 2.4900000000000e-01 -6.7460777405702e-02
 2.5000000000000e-01 -6.7899371007905e-02
 2.5100000000000e-01 -6.8342977254198e-02
 2.5200000000000e-01 -6.8791927820752e-02
 2.5300000000000e-01 -6.9246586333384e-02
 2.5400000000000e-01 -6.9707351115095e-02
 2.5500000000000e-01 -7.0174658233297e-02
ZONE I=32, F=POINT
 2.5600000000000e-01 -7.0641175103084e-02
 2.5700000000000e-01 -7.1106866428392e-02
 2.5800000000000e-01 -7.1576904667194e-02
 2.5900000000000e-01 -7.2051184007717e-02
 2.6000000000000e-01 -7.2529614978822e-02
 2.6100000000000e-01 -7.3012124491430e-02
 2.6200000000000e-01 -7.3498655976369e-02
 2.6300000000000e-01 -7.3989169619248e-02
 2.6400000000000e-01 -7.4483642693930e-02
 2.6500000000000e-01 -7.4982069997151e-02
 2.6600000000000e-01 -7.5484464387767e-02
 2.6700000000000e-01 -7.5990857435190e-02
 2.6800000000000e-01 -7.6501300182579e-02
 2.6900000000000e-01 -7.7015864031559e-02
 2.7000000000000e-01 -7.7534641756410e-02
 2.7100000000000e-01 -7.8057748657081e-02
 2.7200000000000e-01 -7.8585323861818e-02
 2.7300000000000e-01 -7.9117531791884e-02
 2.7400000000000e-01 -7.9654563802676e-02
 2.7500000000000e-01 -8.0196640017659e-02
 2.7600000000000e-01 -8.0744011373878e-02
 2.7700000000000e-01 -8.1296961900526e-02
 2.7800000000000e-01 -8.1855811255147e-02
 2.7900000000000e-01 -8.2420917545579e-02
 2.8000000000000e-01 -8.2992680469897e-02
 2.8100000000000e-01 -8.3571544811330e-02
 2.8200000000000e-01 -8.4158004330717e-02
 2.8300000000000e-01 -8.4752606105499e-02
 2.8400000000000e-01 -8.5355955371860e-02
 2.8500000000000e-01 -8.5968720935520e-02
 2.8600000000000e-01 -8.6591641227234e-02
 2.8700000000000e-01 -8.7225531091490e-02
ZONE I=31, F=POINT
 2.8800000000000e-01 -8.7856137683114e-02
 2.8900000000000e-01 -8.8483332970035e-02
 2.9000000000000e-01 -8.9116845825489e-02
 2.9100000000000e-01 -8.9756445511294e-02
 2.9200000000000e-01 -9.0401931947764e-02
 2.9300000000000e-01 -9.1053135823095e-02
 2.9400000000000e-01 -9.1709918920584e-02
 2.9500000000000e-01 -9.2372174663928e-02
 2.9600000000000e-01 -9.3039828883446e-02
 2.9700000000000e-01 -9.3712840808670e-02
 2.9800000000000e-01 -9.4391204295366e-02
 2.9900000000000e-01 -9.5074949297851e-02
 3.0000000000000e-01 -9.5764143600339e-02
 3.0100000000000e-01 -9.6458894824252e-02
 3.0200000000000e-01 -9.7159352731842e-02
 3.0300000000000e-01 -9.7865711850298e-02
 3.0400000000000e-01 -9.8578214444788e-02
 3.0500000000000e-01 -9.9297153873719e-02
 3.0600000000000e-01 -1.0002287836500e-01
 3.0700000000000e-01 -1.0075579525839e-01
 3.0800000000000e-01 -1.0149637576646e-01
 3.0900000000000e-01 -1.0224516031492e-01
 3.1000000000000e-01 -1.0300276453328e-01
 3.1100000000000e-01 -1.0376988597828e-01
 3.1200000000000e-01 -1.0454731168627e-01
 3.1300000000000e-01 -1.0533592666700e-01
 3.1400000000000e-01 -1.0613672347058e-01
 3.1500000000000e-01 -1.0695081298239e-01
 3.1600000000000e-01 -1.0777943662837e-01
 3.1700000000000e-01 -1.0862398020647e-01
 3.1800000000000e-01 -1.0948598960000e-01
ZONE I=31, F=POINT
 3.1900000000000e-01 -1.1033724398527e-01
 3.2000000000000e-01 -1.1117739407919e-01
 3.2100000000000e-01 -1.1202497341260e-01
 3.2200000000000e-01 -1.1287945679913e-01
 3.2300000000000e-01 -1.1374037777379e-01
 3.2400000000000e-01 -1.1460732855105e-01
 3.2500000000000e-01 -1.1547996047003e-01
 3.2600000000000e-01 -1.1635798491902e-01
 3.2700000000000e-01 -1.1724117473888e-01
 3.2800000000000e-01 -1.1812936611147e-01
 3.2900000000000e-01 -1.1902246094669e-01
 3.3000000000000e-01 -1.1992042978858e-01
 3.3100000000000e-01 -1.2082331526870e-01
 3.3200000000000e-01 -1.2173123614312e-01
 3.3300000000000e-01 -1.2264439195848e-01
 3.3400000000000e-01 -1.2356306840241e-01
 3.3500000000000e-01 -1.2448764340508e-01
 3.3600000000000e-01 -1.2541859407146e-01
 3.3700000000000e-01 -1.2635650453920e-01
 3.3800000000000e-01 -1.2730207487389e-01
 3.3900000000000e-01 -1.2825613113473e-01
 3.4000000000000e-01 -1.2921963676718e-01
 3.4100000000000e-01 -1.3019370550844e-01
 3.4200000000000e-01 -1.3117961602585e-01
 3.4300000000000e-01 -1.3217882854968e-01
 3.4400000000000e-01 -1.3319300381195e-01
 3.4500000000000e-01 -1.3422402466338e-01
 3.4600000000000e-01 -1.3527402081458e-01
 3.4700000000000e-01 -1.3634539723868e-01
 3.4800000000000e-01 -1.3744086688378e-01
 3.4900000000000e-01 -1.3856348848277e-01
ZONE I=31, F=POINT
 3.5000000000000e-01 -1.3965726097988e-01
 3.5100000000000e-01 -1.4072145761037e-01
 3.5200000000000e-01 -1.4179210770441e-01
 3.5300000000000e-01 -1.4286808202271e-01
 3.5400000000000e-01 -1.4394837115740e-01
 3.5500000000000e-01 -1.4503208373091e-01
 3.5600000000000e-01 -1.4611844574784e-01
 3.5700000000000e-01 -1.4720680104356e-01
 3.5800000000000e-01 -1.4829661279520e-01
 3.5900000000000e-01 -1.4938746608077e-01
 3.6000000000000e-01 -1.5047907149222e-01
 3.6100000000000e-01 -1.5157126982761e-01
 3.6200000000000e-01 -1.5266403790757e-01
 3.6300000000000e-01 -1.5375749558286e-01
 3.6400000000000e-01 -1.5485191402239e-01
 3.6500000000000e-01 -1.5594772539682e-01
 3.6600000000000e-01 -1.5704553410172e-01
 3.6700000000000e-01 -1.5814612969717e-01
 3.6800000000000e-01 -1.5925050177958e-01
 3.6900000000000e-01 -1.6035985704665e-01
 3.7000000000000e-01 -1.6147563887078e-01
 3.7100000000000e-01 -1.6259954976101e-01
 3.7200000000000e-01 -1.6373357717194e-01
 3.7300000000000e-01 -1.6488002321376e-01
 3.7400000000000e-01 -1.6604153893431e-01
 3.7500000000000e-01 -1.6722116398815e-01
 3.7600000000000e-01 -1.6842237268651e-01
 3.7700000000000e-01 -1.6964912764442e-01
 3.7800000000000e-01 -1.7090594252161e-01
 3.7900000000000e-01 -1.7219795570640e-01
 3.8000000000000e-01 -1.7353101724155e-01
ZONE I=31, F=POINT
 3.8100000000000e-01 -1.7480115941219e-01
 3.8200000000000e-01 -1.7600726884956e-01
 3.8300000000000e-01 -1.7721740556727e-01
 3.8400000000000e-01 -1.7842929267471e-01
 3.8500000000000e-01 -1.7964090465735e-01
 3.8600000000000e-01 -1.8085045649204e-01
 3.8700000000000e-01 -1.8205639580179e-01
 3.8800000000000e-01 -1.8325739775344e-01
 3.8900000000000e-01 -1.8445236247808e-01
 3.9000000000000e-01 -1.8564041486081e-01
 3.9100000000000e-01 -1.8682090660640e-01
 3.9200000000000e-01 -1.8799342054320e-01
 3.9300000000000e-01 -1.8915777718116e-01
 3.9400000000000e-01 -1.9031404359318e-01
 3.9500000000000e-01 -1.9146254474462e-01
 3.9600000000000e-01 -1.9260387745471e-01
 3.9700000000000e-01 -1.9373892723951e-01
 3.9800000000000e-01 -1.9486888835969e-01
 3.9900000000000e-01 -1.9599528748283e-01
 4.0000000000000e-01 -1.9712001147083e-01
 4.0100000000000e-01 -1.9824533992422e-01
 4.0200000000000e-01 -1.9937398326194e-01
 4.0300000000000e-01 -2.0050912729431e-01
 4.0400000000000e-01 -2.0165448546868e-01
 4.0500000000000e-01 -2.0281436024257e-01
 4.0600000000000e-01 -2.0399371538521e-01
 4.0700000000000e-01 -2.0519826144487e-01
 4.0800000000000e-01 -2.0643455717582e-01
 4.0900000000000e-01 -2.0771013043154e-01
 4.1000000000000e-01 -2.0903362295237e-01
 4.1100000000000e-01 -2.1041496467559e-01
ZONE I=31, F=POINT
 4.1200000000000e-01 -2.1168448023470e-01
 4.1300000000000e-01 -2.1284094889270e-01
 4.1400000000000e-01 -2.1400253231060e-01
 4.1500000000000e-01 -2.1516484671763e-01
 4.1600000000000e-01 -2.1632403155437e-01
 4.1700000000000e-01 -2.1747670729577e-01
 4.1800000000000e-01 -2.1861994195571e-01
 4.1900000000000e-01 -2.1975122500144e-01
 4.2000000000000e-01 -2.2086844769382e-01
 4.2100000000000e-01 -2.2196988910314e-01
 4.2200000000000e-01 -2.2305420724485e-01
 4.2300000000000e-01 -2.2412043494546e-01
 4.2400000000000e-01 -2.2516798019475e-01
 4.2500000000000e-01 -2.2619663087355e-01
 4.2600000000000e-01 -2.2720656387306e-01
 4.2700000000000e-01 -2.2819835874738e-01
 4.2800000000000e-01 -2.2917301617136e-01
 4.2900000000000e-01 -2.3013198161688e-01
 4.3000000000000e-01 -2.3107717481828e-01
 4.3100000000000e-01 -2.3201102578023e-01
 4.3200000000000e-01 -2.3293651829588e-01
 4.3300000000000e-01 -2.3385724220386e-01
 4.3400000000000e-01 -2.3477745593016e-01
 4.3500000000000e-01 -2.3570216125722e-01
 4.3600000000000e-01 -2.3663719275858e-01
 4.3700000000000e-01 -2.3758932496840e-01
 4.3800000000000e-01 -2.3856640116155e-01
 4.3900000000000e-01 -2.3957748866284e-01
 4.4000000000000e-01 -2.4063306696198e-01
 4.4100000000000e-01 -2.4174525669640e-01
 4.4200000000000e-01 -2.4292809993150e-01
ZONE I=31, F=POINT
 4.4300000000000e-01 -2.4394675520878e-01
 4.4400000000000e-01 -2.4480028651146e-01
 4.4500000000000e-01 -2.4566994619413e-01
 4.4600000000000e-01 -2.4654790465377e-01
 4.4700000000000e-01 -2.4742734712892e-01
 4.4800000000000e-01 -2.4830235698508e-01
 4.4900000000000e-01 -2.4916782155372e-01
 4.5000000000000e-01 -2.5001935643042e-01
 4.5100000000000e-01 -2.5085324506886e-01
 4.5200000000000e-01 -2.5166639122794e-01
 4.5300000000000e-01 -2.5245628239688e-01
 4.5400000000000e-01 -2.5322096277696e-01
 4.5500000000000e-01 -2.5395901477042e-01
 4.5600000000000e-01 -2.5466954823883e-01
 4.5700000000000e-01 -2.5535219706475e-01
 4.5800000000000e-01 -2.5600712279531e-01
 4.5900000000000e-01 -2.5663502537847e-01
 4.6000000000000e-01 -2.5723716123297e-01
 4.6100000000000e-01 -2.5781536913366e-01
 4.6200000000000e-01 -2.5837210465644e-01
 4.6300000000000e-01 -2.5891048422597e-01
 4.6400000000000e-01 -2.5943434015998e-01
 4.6500000000000e-01 -2.5994828852727e-01
 4.6600000000000e-01 -2.6045781215787e-01
 4.6700000000000e-01 -2.6096936179694e-01
 4.6800000000000e-01 -2.6149047922357e-01
 4.6900000000000e-01 -2.6202994722271e-01
 4.7000000000000e-01 -2.6259797268476e-01
 4.7100000000000e-01 -2.6320641092824e-01
 4.7200000000000e-01 -2.6386904175521e-01
 4.7300000000000e-01 -2.6460191098332e-01
ZONE I=31, F=POINT
 4.7400000000000e-01 -2.6513181185743e-01
 4.7500000000000e-01 -2.6545830185054e-01
 4.7600000000000e-01 -2.6582222771872e-01
 4.7700000000000e-01 -2.6621147420106e-01
 4.7800000000000e-01 -2.6661559684736e-01
 4.7900000000000e-01 -2.6702559108176e-01
 4.8000000000000e-01 -2.6743370613890e-01
 4.8100000000000e-01 -2.6783329482076e-01
 4.8200000000000e-01 -2.6821869214394e-01
 4.8300000000000e-01 -2.6858511754763e-01
 4.8400000000000e-01 -2.6892859655313e-01
 4.8500000000000e-01 -2.6924589871029e-01
 4.8600000000000e-01 -2.6953448940726e-01
 4.8700000000000e-01 -2.6979249371256e-01
 4.8800000000000e-01 -2.7001867090273e-01
 4.8900000000000e-01 -2.7021239873625e-01
 4.9000000000000e-01 -2.7037366688897e-01
 4.9100000000000e-01 -2.7050307928902e-01
 4.9200000000000e-01 -2.7060186539644e-01
 4.9300000000000e-01 -2.7067190078250e-01
 4.9400000000000e-01 -2.7071573769098e-01
 4.9500000000000e-01 -2.7073664662702e-01
 4.9600000000000e-01 -2.7073867043970e-01
 4.9700000000000e-01 -2.7072669286597e-01
 4.9800000000000e-01 -2.7070652411971e-01
 4.9900000000000e-01 -2.7068500688083e-01
 5.0000000000000e-01 -2.7067014702230e-01
 5.0100000000000e-01 -2.7067127468253e-01
 5.0200000000000e-01 -2.7069924295271e-01
 5.0300000000000e-01 -2.7076667364732e-01
 5.0400000000000e-01 -2.7088826256968e-01
ZONE I=31, F=POINT
 5.0500000000000e-01 -2.7079538408511e-01
 5.0600000000000e-01 -2.7048811291435e-01
 5.0700000000000e-01 -2.7024097117223e-01
 5.0800000000000e-01 -2.7003853779629e-01
 5.0900000000000e-01 -2.6986757666717e-01
 5.1000000000000e-01 -2.6971671055793e-01
 5.1100000000000e-01 -2.6957615850797e-01
 5.1200000000000e-01 -2.6943752330750e-01
 5.1300000000000e-01 -2.6929361893756e-01
 5.1400000000000e-01 -2.6913833016813e-01
 5.1500000000000e-01 -2.6896649829422e-01
 5.1600000000000e-01 -2.6877382834535e-01
 5.1700000000000e-01 -2.6855681414912e-01
 5.1800000000000e-01 -2.6831267844682e-01
 5.1900000000000e-01 -2.6803932590722e-01
 5.2000000000000e-01 -2.6773530740851e-01
 5.2100000000000e-01 -2.6739979439216e-01
 5.2200000000000e-01 -2.6703256246147e-01
 5.2300000000000e-01 -2.6663398372371e-01
 5.2400000000000e-01 -2.6620502767598e-01
 5.2500000000000e-01 -2.6574727072640e-01
 5.2600000000000e-01 -2.6526291474030e-01
 5.2700000000000e-01 -2.6475481532068e-01
 5.2800000000000e-01 -2.6422652089210e-01
 5.2900000000000e-01 -2.6368232407711e-01
 5.3000000000000e-01 -2.6312732736123e-01
 5.3100000000000e-01 -2.6256752566952e-01
 5.3200000000000e-01 -2.6200990926912e-01
 5.3300000000000e-01 -2.6146259142803e-01
 5.3400000000000e-01 -2.6093496658254e-01
 5.3500000000000e-01 -2.6043790650888e-01
ZONE I=31, F=POINT
 5.3600000000000e-01 -2.5974619289399e-01
 5.3700000000000e-01 -2.5886041876120e-01
 5.3800000000000e-01 -2.5804671946772e-01
 5.3900000000000e-01 -2.5728930358727e-01
 5.4000000000000e-01 -2.5657459592297e-01
 5.4100000000000e-01 -2.5589090493694e-01
 5.4200000000000e-01 -2.5522815328610e-01
 5.4300000000000e-01 -2.5457765829292e-01
 5.4400000000000e-01 -2.5393195225562e-01
 5.4500000000000e-01 -2.5328463480315e-01
 5.4600000000000e-01 -2.5263025123817e-01
 5.4700000000000e-01 -2.5196419213604e-01
 5.4800000000000e-01 -2.5128261048843e-01
 5.4900000000000e-01 -2.5058235347321e-01
 5.5000000000000e-01 -2.4986090655688e-01
 5.5100000000000e-01 -2.4911634813221e-01
 5.5200000000000e-01 -2.4834731329605e-01
 5.5300000000000e-01 -2.4755296570240e-01
 5.5400000000000e-01 -2.4673297670482e-01
 5.5500000000000e-01 -2.4588751124342e-01
 5.5600000000000e-01 -2.4501722014851e-01
 5.5700000000000e-01 -2.4412323873569e-01
 5.5800000000000e-01 -2.4320719176595e-01
 5.5900000000000e-01 -2.4227120504854e-01
 5.6000000000000e-01 -2.4131792418446e-01
 5.6100000000000e-01 -2.4035054119597e-01
 5.6200000000000e-01 -2.3937283007567e-01
 5.6300000000000e-01 -2.3838919263480e-01
 5.6400000000000e-01 -2.3740471645668e-01
 5.6500000000000e-01 -2.3642524729512e-01
 5.6600000000000e-01 -2.3545747893942e-01
ZONE I=31, F=POINT
 5.6700000000000e-01 -2.3433904230452e-01
 5.6800000000000e-01 -2.3307098901443e-01
 5.6900000000000e-01 -2.3187087175930e-01
 5.7000000000000e-01 -2.3072572110433e-01
 5.7100000000000e-01 -2.2962431797414e-01
 5.7200000000000e-01 -2.2855694288430e-01
 5.7300000000000e-01 -2.2751517019098e-01
 5.7400000000000e-01 -2.2649169834643e-01
 5.7500000000000e-01 -2.2548020916238e-01
 5.7600000000000e-01 -2.2447525060954e-01
 5.7700000000000e-01 -2.2347213884673e-01
 5.7800000000000e-01 -2.2246687607178e-01
 5.7900000000000e-01 -2.2145608148370e-01
 5.8000000000000e-01 -2.2043693319274e-01
 5.8100000000000e-01 -2.1940711934634e-01
 5.8200000000000e-01 -2.1836479708374e-01
 5.8300000000000e-01 -2.1730855820943e-01
 5.8400000000000e-01 -2.1623740070167e-01
 5.8500000000000e-01 -2.1515070535928e-01
 5.8600000000000e-01 -2.1404821704708e-01
 5.8700000000000e-01 -2.1293003013538e-01
 5.8800000000000e-01 -2.1179657784750e-01
 5.8900000000000e-01 -2.1064862533785e-01
 5.9000000000000e-01 -2.0948726642440e-01
 5.9100000000000e-01 -2.0831392399996e-01
 5.9200000000000e-01 -2.0713035424830e-01
 5.9300000000000e-01 -2.0593865490083e-01
 5.9400000000000e-01 -2.0474127788980e-01
 5.9500000000000e-01 -2.0354104689269e-01
 5.9600000000000e-01 -2.0234118042514e-01
 5.9700000000000e-01 -2.0114532133648e-01
ZONE I=31, F=POINT
 5.9800000000000e-01 -1.9985164237425e-01
 5.9900000000000e-01 -1.9846137513978e-01
 6.0000000000000e-01 -1.9712407169989e-01
 6.0100000000000e-01 -1.9583107283959e-01
 6.0200000000000e-01 -1.9457482277488e-01
 6.0300000000000e-01 -1.9334872392750e-01
 6.0400000000000e-01 -1.9214701561333e-01
 6.0500000000000e-01 -1.9096467219517e-01
 6.0600000000000e-01 -1.8979731717785e-01
 6.0700000000000e-01 -1.8864115043994e-01
 6.0800000000000e-01 -1.8749288635423e-01
 6.0900000000000e-01 -1.8634970098695e-01
 6.1000000000000e-01 -1.8520918691108e-01
 6.1100000000000e-01 -1.8406931444438e-01
 6.1200000000000e-01 -1.8292839834275e-01
 6.1300000000000e-01 -1.8178506915732e-01
 6.1400000000000e-01 -1.8063824860828e-01
 6.1500000000000e-01 -1.7948712844651e-01
 6.1600000000000e-01 -1.7833115237233e-01
 6.1700000000000e-01 -1.7717000066250e-01
 6.1800000000000e-01 -1.7600357722593e-01
 6.1900000000000e-01 -1.7483199886826e-01
 6.2000000000000e-01 -1.7365558659793e-01
 6.2100000000000e-01 -1.7247485885295e-01
 6.2200000000000e-01 -1.7129052657100e-01
 6.2300000000000e-01 -1.7010349006640e-01
 6.2400000000000e-01 -1.6891483771750e-01
 6.2500000000000e-01 -1.6772584650927e-01
 6.2600000000000e-01 -1.6653798451831e-01
 6.2700000000000e-01 -1.6535291547485e-01
 6.2800000000000e-01 -1.6417250558810e-01
ZONE I=31, F=POINT
 6.2900000000000e-01 -1.6293981845597e-01
 6.3000000000000e-01 -1.6165587119608e-01
 6.3100000000000e-01 -1.6040848329587e-01
 6.3200000000000e-01 -1.5919276658454e-01
 6.3300000000000e-01 -1.5800441566112e-01
 6.3400000000000e-01 -1.5683963895573e-01
 6.3500000000000e-01 -1.5569509993448e-01
 6.3600000000000e-01 -1.5456786674257e-01
 6.3700000000000e-01 -1.5345536890378e-01
 6.3800000000000e-01 -1.5235535995103e-01
 6.3900000000000e-01 -1.5126588506743e-01
 6.4000000000000e-01 -1.5018525298115e-01
 6.4100000000000e-01 -1.4911201148993e-01
 6.4200000000000e-01 -1.4804492609843e-01
 6.4300000000000e-01 -1.4698296133935e-01
 6.4400000000000e-01 -1.4592526442128e-01
 6.4500000000000e-01 -1.4487115090543e-01
 6.4600000000000e-01 -1.4382009216316e-01
 6.4700000000000e-01 -1.4277170440730e-01
 6.4800000000000e-01 -1.4172573912513e-01
 6.4900000000000e-01 -1.4068207477066e-01
 6.5000000000000e-01 -1.3964070959927e-01
 6.5100000000000e-01 -1.3860175554993e-01
 6.5200000000000e-01 -1.3756543309978e-01
 6.5300000000000e-01 -1.3653206703366e-01
 6.5400000000000e-01 -1.3550208308687e-01
 6.5500000000000e-01 -1.3447600543512e-01
 6.5600000000000e-01 -1.3345445501984e-01
 6.5700000000000e-01 -1.3243814871153e-01
 6.5800000000000e-01 -1.3142789932881e-01
 6.5900000000000e-01 -1.3042461654596e-01
ZONE I=31, F=POINT
 6.6000000000000e-01 -1.2939860077074e-01
 6.6100000000000e-01 -1.2835045738231e-01
 6.6200000000000e-01 -1.2732624147559e-01
 6.6300000000000e-01 -1.2632344489830e-01
 6.6400000000000e-01 -1.2533983631147e-01
 6.6500000000000e-01 -1.2437343186543e-01
 6.6600000000000e-01 -1.2342246969053e-01
 6.6700000000000e-01 -1.2248538763457e-01
 6.6800000000000e-01 -1.2156080377578e-01
 6.6900000000000e-01 -1.2064749931871e-01
 6.7000000000000e-01 -1.1974440354475e-01
 6.7100000000000e-01 -1.1885058054191e-01
 6.7200000000000e-01 -1.1796521748171e-01
 6.7300000000000e-01 -1.1708761424749e-01
 6.7400000000000e-01 -1.1621717424838e-01
 6.7500000000000e-01 -1.1535339627830e-01
 6.7600000000000e-01 -1.1449586730059e-01
 6.7700000000000e-01 -1.1364425605680e-01
 6.7800000000000e-01 -1.1279830741322e-01
 6.7900000000000e-01 -1.1195783737203e-01
 6.8000000000000e-01 -1.1112272868488e-01
 6.8100000000000e-01 -1.1029292701659e-01
 6.8200000000000e-01 -1.0946843761518e-01
 6.8300000000000e-01 -1.0864932245202e-01
 6.8400000000000e-01 -1.0783569780265e-01
 6.8500000000000e-01 -1.0702773224488e-01
 6.8600000000000e-01 -1.0622564505688e-01
 6.8700000000000e-01 -1.0542970500297e-01
 6.8800000000000e-01 -1.0464022950024e-01
 6.8900000000000e-01 -1.0385758416439e-01
 6.9000000000000e-01 -1.0308218273823e-01
ZONE I=31, F=POINT
 6.9100000000000e-01 -1.0229873550083e-01
 6.9200000000000e-01 -1.0150751043977e-01
 6.9300000000000e-01 -1.0073155618512e-01
 6.9400000000000e-01 -9.9969600249795e-02
 6.9500000000000e-01 -9.9220498316318e-02
 6.9600000000000e-01 -9.8483222034716e-02
 6.9700000000000e-01 -9.7756848235985e-02
 6.9800000000000e-01 -9.7040549375516e-02
 6.9900000000000e-01 -9.6333585049137e-02
 7.0000000000000e-01 -9.5635294447936e-02
 7.0100000000000e-01 -9.4945089637610e-02
 7.0200000000000e-01 -9.4262449564621e-02